VAL_1 RESP calc                                                         
SP        RPBE1PBE                                                    Gen                 
Number of atoms                            I               28
Info1-9                                    I   N=           9
          45          45           0           0           0         111
           1          18        -302
Charge                                     I                0
Multiplicity                               I                1
Number of electrons                        I               94
Number of alpha electrons                  I               47
Number of beta electrons                   I               47
Number of basis functions                  I              356
Number of independent functions            I              356
Number of point charges in /Mol/           I                0
Number of translation vectors              I                0
Atomic numbers                             I   N=          28
           6           8           6           1           1           1
           7           1           6           1           6           6
           1           6           6           8           1           1
           1           1           1           1           7           1
           6           1           1           1
Nuclear charges                            R   N=          28
  6.00000000E+00  8.00000000E+00  6.00000000E+00  1.00000000E+00  1.00000000E+00
  1.00000000E+00  7.00000000E+00  1.00000000E+00  6.00000000E+00  1.00000000E+00
  6.00000000E+00  6.00000000E+00  1.00000000E+00  6.00000000E+00  6.00000000E+00
  8.00000000E+00  1.00000000E+00  1.00000000E+00  1.00000000E+00  1.00000000E+00
  1.00000000E+00  1.00000000E+00  7.00000000E+00  1.00000000E+00  6.00000000E+00
  1.00000000E+00  1.00000000E+00  1.00000000E+00
Current cartesian coordinates              R   N=          84
 -4.00690767E+00 -8.66305650E-01  4.46868569E-01 -4.13138360E+00  5.61187466E-01
  2.22579205E+00 -6.34167088E+00 -1.94405631E+00 -9.65190184E-01 -6.25255953E+00
 -1.45758099E+00 -2.95781632E+00 -6.38739721E+00 -3.98976037E+00 -7.86653105E-01
 -8.04798885E+00 -1.15427052E+00 -1.45240414E-01 -1.70869264E+00 -1.66667275E+00
 -5.44811287E-01 -1.69618434E+00 -2.97918234E+00 -1.91470417E+00  6.52114564E-01
 -9.94772573E-01  6.82727441E-01  6.73898757E-01 -1.63073873E+00  2.64347163E+00
  2.91390150E+00 -2.21543010E+00 -7.46133408E-01  9.55637932E-01  1.94692039E+00
  7.88935330E-01  2.75500344E+00 -1.71511393E+00 -2.72649365E+00  5.45543882E+00
 -1.19450330E+00  2.78389983E-01  2.82532236E+00 -5.12994240E+00 -4.76993440E-01
  1.63596047E+00  3.06151181E+00  2.66066296E+00  5.57446954E+00 -1.49673319E+00
  2.30141699E+00  7.01381876E+00 -2.17232920E+00 -6.21041548E-01  5.64559129E+00
  8.12103043E-01 -8.58339828E-02  1.07155757E+00 -5.91092725E+00 -1.18478460E+00
  4.37360542E+00 -5.97687596E+00 -1.51745679E+00  3.01166586E+00 -5.65141395E+00
  1.49529205E+00  5.55241228E-01  3.09813760E+00 -1.53124888E+00 -2.52526950E-01
  2.05786927E+00 -2.90049110E+00  6.34473518E-01  5.83427614E+00 -1.78803173E+00
  1.70285563E+00  6.38801728E+00 -3.46245574E+00 -1.25297703E+00  6.66445607E+00
 -1.90248882E+00  1.57485177E+00  6.59351548E+00 -1.17374741E-01
Force Field                                I                0
Int Atom Types                             I   N=          28
           0           0           0           0           0           0
           0           0           0           0           0           0
           0           0           0           0           0           0
           0           0           0           0           0           0
           0           0           0           0
MM charges                                 R   N=          28
  0.00000000E+00  0.00000000E+00  0.00000000E+00  0.00000000E+00  0.00000000E+00
  0.00000000E+00  0.00000000E+00  0.00000000E+00  0.00000000E+00  0.00000000E+00
  0.00000000E+00  0.00000000E+00  0.00000000E+00  0.00000000E+00  0.00000000E+00
  0.00000000E+00  0.00000000E+00  0.00000000E+00  0.00000000E+00  0.00000000E+00
  0.00000000E+00  0.00000000E+00  0.00000000E+00  0.00000000E+00  0.00000000E+00
  0.00000000E+00  0.00000000E+00  0.00000000E+00
Integer atomic weights                     I   N=          28
          12          16          12           1           1           1
          14           1          12           1          12          12
           1          12          12          16           1           1
           1           1           1           1          14           1
          12           1           1           1
Real atomic weights                        R   N=          28
  1.20000000E+01  1.59949146E+01  1.20000000E+01  1.00782504E+00  1.00782504E+00
  1.00782504E+00  1.40030740E+01  1.00782504E+00  1.20000000E+01  1.00782504E+00
  1.20000000E+01  1.20000000E+01  1.00782504E+00  1.20000000E+01  1.20000000E+01
  1.59949146E+01  1.00782504E+00  1.00782504E+00  1.00782504E+00  1.00782504E+00
  1.00782504E+00  1.00782504E+00  1.40030740E+01  1.00782504E+00  1.20000000E+01
  1.00782504E+00  1.00782504E+00  1.00782504E+00
Atom fragment info                         I   N=          28
           0           0           0           0           0           0
           0           0           0           0           0           0
           0           0           0           0           0           0
           0           0           0           0           0           0
           0           0           0           0
Atom residue num                           I   N=          28
           0           0           0           0           0           0
           0           0           0           0           0           0
           0           0           0           0           0           0
           0           0           0           0           0           0
           0           0           0           0
Nuclear spins                              I   N=          28
           0           0           0           1           1           1
           2           1           0           1           0           0
           1           0           0           0           1           1
           1           1           1           1           2           1
           0           1           1           1
Nuclear ZEff                               R   N=          28
 -3.60000000E+00 -5.60000000E+00 -3.60000000E+00 -1.00000000E+00 -1.00000000E+00
 -1.00000000E+00 -4.55000000E+00 -1.00000000E+00 -3.60000000E+00 -1.00000000E+00
 -3.60000000E+00 -3.60000000E+00 -1.00000000E+00 -3.60000000E+00 -3.60000000E+00
 -5.60000000E+00 -1.00000000E+00 -1.00000000E+00 -1.00000000E+00 -1.00000000E+00
 -1.00000000E+00 -1.00000000E+00 -4.55000000E+00 -1.00000000E+00 -3.60000000E+00
 -1.00000000E+00 -1.00000000E+00 -1.00000000E+00
Nuclear ZNuc                               R   N=          28
  6.00000000E+00  8.00000000E+00  6.00000000E+00  1.00000000E+00  1.00000000E+00
  1.00000000E+00  7.00000000E+00  1.00000000E+00  6.00000000E+00  1.00000000E+00
  6.00000000E+00  6.00000000E+00  1.00000000E+00  6.00000000E+00  6.00000000E+00
  8.00000000E+00  1.00000000E+00  1.00000000E+00  1.00000000E+00  1.00000000E+00
  1.00000000E+00  1.00000000E+00  7.00000000E+00  1.00000000E+00  6.00000000E+00
  1.00000000E+00  1.00000000E+00  1.00000000E+00
Nuclear QMom                               R   N=          28
  0.00000000E+00  0.00000000E+00  0.00000000E+00  0.00000000E+00  0.00000000E+00
  0.00000000E+00  2.04400000E+00  0.00000000E+00  0.00000000E+00  0.00000000E+00
  0.00000000E+00  0.00000000E+00  0.00000000E+00  0.00000000E+00  0.00000000E+00
  0.00000000E+00  0.00000000E+00  0.00000000E+00  0.00000000E+00  0.00000000E+00
  0.00000000E+00  0.00000000E+00  2.04400000E+00  0.00000000E+00  0.00000000E+00
  0.00000000E+00  0.00000000E+00  0.00000000E+00
Nuclear GFac                               R   N=          28
  0.00000000E+00  0.00000000E+00  0.00000000E+00  2.79284600E+00  2.79284600E+00
  2.79284600E+00  4.03761000E-01  2.79284600E+00  0.00000000E+00  2.79284600E+00
  0.00000000E+00  0.00000000E+00  2.79284600E+00  0.00000000E+00  0.00000000E+00
  0.00000000E+00  2.79284600E+00  2.79284600E+00  2.79284600E+00  2.79284600E+00
  2.79284600E+00  2.79284600E+00  4.03761000E-01  2.79284600E+00  0.00000000E+00
  2.79284600E+00  2.79284600E+00  2.79284600E+00
MicOpt                                     I   N=          28
          -1          -1          -1          -1          -1          -1
          -1          -1          -1          -1          -1          -1
          -1          -1          -1          -1          -1          -1
          -1          -1          -1          -1          -1          -1
          -1          -1          -1          -1
Number of contracted shells                I              156
Number of primitive shells                 I              356
Pure/Cartesian d shells                    I                0
Pure/Cartesian f shells                    I                0
Highest angular momentum                   I                2
Largest degree of contraction              I                7
Shell types                                I   N=         156
           0           0           0           0           1           1
           1          -2          -2           0           0           0
           0           1           1           1          -2          -2
           0           0           0           0           1           1
           1          -2          -2           0           0           1
           0           0           1           0           0           1
           0           0           0           0           1           1
           1          -2          -2           0           0           1
           0           0           0           0           1           1
           1          -2          -2           0           0           1
           0           0           0           0           1           1
           1          -2          -2           0           0           0
           0           1           1           1          -2          -2
           0           0           1           0           0           0
           0           1           1           1          -2          -2
           0           0           0           0           1           1
           1          -2          -2           0           0           0
           0           1           1           1          -2          -2
           0           0           1           0           0           1
           0           0           1           0           0           1
           0           0           1           0           0           1
           0           0           0           0           1           1
           1          -2          -2           0           0           1
           0           0           0           0           1           1
           1          -2          -2           0           0           1
           0           0           1           0           0           1
Number of primitives per shell             I   N=         156
           7           7           1           1           3           1
           1           1           1           7           7           1
           1           3           1           1           1           1
           7           7           1           1           3           1
           1           1           1           3           1           1
           3           1           1           3           1           1
           7           7           1           1           3           1
           1           1           1           3           1           1
           7           7           1           1           3           1
           1           1           1           3           1           1
           7           7           1           1           3           1
           1           1           1           7           7           1
           1           3           1           1           1           1
           3           1           1           7           7           1
           1           3           1           1           1           1
           7           7           1           1           3           1
           1           1           1           7           7           1
           1           3           1           1           1           1
           3           1           1           3           1           1
           3           1           1           3           1           1
           3           1           1           3           1           1
           7           7           1           1           3           1
           1           1           1           3           1           1
           7           7           1           1           3           1
           1           1           1           3           1           1
           3           1           1           3           1           1
Shell to atom map                          I   N=         156
           1           1           1           1           1           1
           1           1           1           2           2           2
           2           2           2           2           2           2
           3           3           3           3           3           3
           3           3           3           4           4           4
           5           5           5           6           6           6
           7           7           7           7           7           7
           7           7           7           8           8           8
           9           9           9           9           9           9
           9           9           9          10          10          10
          11          11          11          11          11          11
          11          11          11          12          12          12
          12          12          12          12          12          12
          13          13          13          14          14          14
          14          14          14          14          14          14
          15          15          15          15          15          15
          15          15          15          16          16          16
          16          16          16          16          16          16
          17          17          17          18          18          18
          19          19          19          20          20          20
          21          21          21          22          22          22
          23          23          23          23          23          23
          23          23          23          24          24          24
          25          25          25          25          25          25
          25          25          25          26          26          26
          27          27          27          28          28          28
Primitive exponents                        R   N=         356
  6.66500000E+03  1.00000000E+03  2.28000000E+02  6.47100000E+01  2.10600000E+01
  7.49500000E+00  2.79700000E+00  6.66500000E+03  2.28000000E+02  6.47100000E+01
  2.10600000E+01  7.49500000E+00  2.79700000E+00  5.21500000E-01  1.59600000E-01
  4.69000000E-02  9.43900000E+00  2.00200000E+00  5.45600000E-01  1.51700000E-01
  4.04100000E-02  5.50000000E-01  1.51000000E-01  1.17200000E+04  1.75900000E+03
  4.00800000E+02  1.13700000E+02  3.70300000E+01  1.32700000E+01  5.02500000E+00
  1.17200000E+04  4.00800000E+02  1.13700000E+02  3.70300000E+01  1.32700000E+01
  5.02500000E+00  1.01300000E+00  3.02300000E-01  7.89600000E-02  1.77000000E+01
  3.85400000E+00  1.04600000E+00  2.75300000E-01  6.85600000E-02  1.18500000E+00
  3.32000000E-01  6.66500000E+03  1.00000000E+03  2.28000000E+02  6.47100000E+01
  2.10600000E+01  7.49500000E+00  2.79700000E+00  6.66500000E+03  2.28000000E+02
  6.47100000E+01  2.10600000E+01  7.49500000E+00  2.79700000E+00  5.21500000E-01
  1.59600000E-01  4.69000000E-02  9.43900000E+00  2.00200000E+00  5.45600000E-01
  1.51700000E-01  4.04100000E-02  5.50000000E-01  1.51000000E-01  1.30100000E+01
  1.96200000E+00  4.44600000E-01  1.22000000E-01  7.27000000E-01  1.30100000E+01
  1.96200000E+00  4.44600000E-01  1.22000000E-01  7.27000000E-01  1.30100000E+01
  1.96200000E+00  4.44600000E-01  1.22000000E-01  7.27000000E-01  9.04600000E+03
  1.35700000E+03  3.09300000E+02  8.77300000E+01  2.85600000E+01  1.02100000E+01
  3.83800000E+00  9.04600000E+03  3.09300000E+02  8.77300000E+01  2.85600000E+01
  1.02100000E+01  3.83800000E+00  7.46600000E-01  2.24800000E-01  6.12400000E-02
  1.35500000E+01  2.91700000E+00  7.97300000E-01  2.18500000E-01  5.61100000E-02
  8.17000000E-01  2.30000000E-01  1.30100000E+01  1.96200000E+00  4.44600000E-01
  1.22000000E-01  7.27000000E-01  6.66500000E+03  1.00000000E+03  2.28000000E+02
  6.47100000E+01  2.10600000E+01  7.49500000E+00  2.79700000E+00  6.66500000E+03
  2.28000000E+02  6.47100000E+01  2.10600000E+01  7.49500000E+00  2.79700000E+00
  5.21500000E-01  1.59600000E-01  4.69000000E-02  9.43900000E+00  2.00200000E+00
  5.45600000E-01  1.51700000E-01  4.04100000E-02  5.50000000E-01  1.51000000E-01
  1.30100000E+01  1.96200000E+00  4.44600000E-01  1.22000000E-01  7.27000000E-01
  6.66500000E+03  1.00000000E+03  2.28000000E+02  6.47100000E+01  2.10600000E+01
  7.49500000E+00  2.79700000E+00  6.66500000E+03  2.28000000E+02  6.47100000E+01
  2.10600000E+01  7.49500000E+00  2.79700000E+00  5.21500000E-01  1.59600000E-01
  4.69000000E-02  9.43900000E+00  2.00200000E+00  5.45600000E-01  1.51700000E-01
  4.04100000E-02  5.50000000E-01  1.51000000E-01  6.66500000E+03  1.00000000E+03
  2.28000000E+02  6.47100000E+01  2.10600000E+01  7.49500000E+00  2.79700000E+00
  6.66500000E+03  2.28000000E+02  6.47100000E+01  2.10600000E+01  7.49500000E+00
  2.79700000E+00  5.21500000E-01  1.59600000E-01  4.69000000E-02  9.43900000E+00
  2.00200000E+00  5.45600000E-01  1.51700000E-01  4.04100000E-02  5.50000000E-01
  1.51000000E-01  1.30100000E+01  1.96200000E+00  4.44600000E-01  1.22000000E-01
  7.27000000E-01  6.66500000E+03  1.00000000E+03  2.28000000E+02  6.47100000E+01
  2.10600000E+01  7.49500000E+00  2.79700000E+00  6.66500000E+03  2.28000000E+02
  6.47100000E+01  2.10600000E+01  7.49500000E+00  2.79700000E+00  5.21500000E-01
  1.59600000E-01  4.69000000E-02  9.43900000E+00  2.00200000E+00  5.45600000E-01
  1.51700000E-01  4.04100000E-02  5.50000000E-01  1.51000000E-01  6.66500000E+03
  1.00000000E+03  2.28000000E+02  6.47100000E+01  2.10600000E+01  7.49500000E+00
  2.79700000E+00  6.66500000E+03  2.28000000E+02  6.47100000E+01  2.10600000E+01
  7.49500000E+00  2.79700000E+00  5.21500000E-01  1.59600000E-01  4.69000000E-02
  9.43900000E+00  2.00200000E+00  5.45600000E-01  1.51700000E-01  4.04100000E-02
  5.50000000E-01  1.51000000E-01  1.17200000E+04  1.75900000E+03  4.00800000E+02
  1.13700000E+02  3.70300000E+01  1.32700000E+01  5.02500000E+00  1.17200000E+04
  4.00800000E+02  1.13700000E+02  3.70300000E+01  1.32700000E+01  5.02500000E+00
  1.01300000E+00  3.02300000E-01  7.89600000E-02  1.77000000E+01  3.85400000E+00
  1.04600000E+00  2.75300000E-01  6.85600000E-02  1.18500000E+00  3.32000000E-01
  1.30100000E+01  1.96200000E+00  4.44600000E-01  1.22000000E-01  7.27000000E-01
  1.30100000E+01  1.96200000E+00  4.44600000E-01  1.22000000E-01  7.27000000E-01
  1.30100000E+01  1.96200000E+00  4.44600000E-01  1.22000000E-01  7.27000000E-01
  1.30100000E+01  1.96200000E+00  4.44600000E-01  1.22000000E-01  7.27000000E-01
  1.30100000E+01  1.96200000E+00  4.44600000E-01  1.22000000E-01  7.27000000E-01
  1.30100000E+01  1.96200000E+00  4.44600000E-01  1.22000000E-01  7.27000000E-01
  9.04600000E+03  1.35700000E+03  3.09300000E+02  8.77300000E+01  2.85600000E+01
  1.02100000E+01  3.83800000E+00  9.04600000E+03  3.09300000E+02  8.77300000E+01
  2.85600000E+01  1.02100000E+01  3.83800000E+00  7.46600000E-01  2.24800000E-01
  6.12400000E-02  1.35500000E+01  2.91700000E+00  7.97300000E-01  2.18500000E-01
  5.61100000E-02  8.17000000E-01  2.30000000E-01  1.30100000E+01  1.96200000E+00
  4.44600000E-01  1.22000000E-01  7.27000000E-01  6.66500000E+03  1.00000000E+03
  2.28000000E+02  6.47100000E+01  2.10600000E+01  7.49500000E+00  2.79700000E+00
  6.66500000E+03  2.28000000E+02  6.47100000E+01  2.10600000E+01  7.49500000E+00
  2.79700000E+00  5.21500000E-01  1.59600000E-01  4.69000000E-02  9.43900000E+00
  2.00200000E+00  5.45600000E-01  1.51700000E-01  4.04100000E-02  5.50000000E-01
  1.51000000E-01  1.30100000E+01  1.96200000E+00  4.44600000E-01  1.22000000E-01
  7.27000000E-01  1.30100000E+01  1.96200000E+00  4.44600000E-01  1.22000000E-01
  7.27000000E-01  1.30100000E+01  1.96200000E+00  4.44600000E-01  1.22000000E-01
  7.27000000E-01
Contraction coefficients                   R   N=         356
  6.93516317E-04  5.34150243E-03  2.71366714E-02  1.01992385E-01  2.75508636E-01
  4.51086433E-01  2.87565745E-01  7.73354740E-06  2.78072137E-04 -2.57875654E-03
 -8.95087684E-03 -1.06058855E-01 -1.31517686E-01  1.09948660E+00  1.00000000E+00
  1.00000000E+00  5.69792516E-02  3.13207212E-01  7.60376742E-01  1.00000000E+00
  1.00000000E+00  1.00000000E+00  1.00000000E+00  7.11864434E-04  5.48520199E-03
  2.79099296E-02  1.05133208E-01  2.84002490E-01  4.51673946E-01  2.73208126E-01
  7.69030046E-06  3.13484579E-04 -2.96614853E-03 -1.08753543E-02 -1.20753817E-01
 -1.06275264E-01  1.09597548E+00  1.00000000E+00  1.00000000E+00  6.26791663E-02
  3.33536566E-01  7.41239642E-01  1.00000000E+00  1.00000000E+00  1.00000000E+00
  1.00000000E+00  6.93516317E-04  5.34150243E-03  2.71366714E-02  1.01992385E-01
  2.75508636E-01  4.51086433E-01  2.87565745E-01  7.73354740E-06  2.78072137E-04
 -2.57875654E-03 -8.95087684E-03 -1.06058855E-01 -1.31517686E-01  1.09948660E+00
  1.00000000E+00  1.00000000E+00  5.69792516E-02  3.13207212E-01  7.60376742E-01
  1.00000000E+00  1.00000000E+00  1.00000000E+00  1.00000000E+00  3.34987264E-02
  2.34800801E-01  8.13682958E-01  1.00000000E+00  1.00000000E+00  3.34987264E-02
  2.34800801E-01  8.13682958E-01  1.00000000E+00  1.00000000E+00  3.34987264E-02
  2.34800801E-01  8.13682958E-01  1.00000000E+00  1.00000000E+00  7.01708743E-04
  5.40299880E-03  2.74729510E-02  1.03514580E-01  2.79586579E-01  4.51317241E-01
  2.80626875E-01  7.77446797E-06  3.00742072E-04 -2.80016549E-03 -9.89708505E-03
 -1.14331114E-01 -1.18162383E-01  1.09786885E+00  1.00000000E+00  1.00000000E+00
  5.89056768E-02  3.20461107E-01  7.53042062E-01  1.00000000E+00  1.00000000E+00
  1.00000000E+00  1.00000000E+00  3.34987264E-02  2.34800801E-01  8.13682958E-01
  1.00000000E+00  1.00000000E+00  6.93516317E-04  5.34150243E-03  2.71366714E-02
  1.01992385E-01  2.75508636E-01  4.51086433E-01  2.87565745E-01  7.73354740E-06
  2.78072137E-04 -2.57875654E-03 -8.95087684E-03 -1.06058855E-01 -1.31517686E-01
  1.09948660E+00  1.00000000E+00  1.00000000E+00  5.69792516E-02  3.13207212E-01
  7.60376742E-01  1.00000000E+00  1.00000000E+00  1.00000000E+00  1.00000000E+00
  3.34987264E-02  2.34800801E-01  8.13682958E-01  1.00000000E+00  1.00000000E+00
  6.93516317E-04  5.34150243E-03  2.71366714E-02  1.01992385E-01  2.75508636E-01
  4.51086433E-01  2.87565745E-01  7.73354740E-06  2.78072137E-04 -2.57875654E-03
 -8.95087684E-03 -1.06058855E-01 -1.31517686E-01  1.09948660E+00  1.00000000E+00
  1.00000000E+00  5.69792516E-02  3.13207212E-01  7.60376742E-01  1.00000000E+00
  1.00000000E+00  1.00000000E+00  1.00000000E+00  6.93516317E-04  5.34150243E-03
  2.71366714E-02  1.01992385E-01  2.75508636E-01  4.51086433E-01  2.87565745E-01
  7.73354740E-06  2.78072137E-04 -2.57875654E-03 -8.95087684E-03 -1.06058855E-01
 -1.31517686E-01  1.09948660E+00  1.00000000E+00  1.00000000E+00  5.69792516E-02
  3.13207212E-01  7.60376742E-01  1.00000000E+00  1.00000000E+00  1.00000000E+00
  1.00000000E+00  3.34987264E-02  2.34800801E-01  8.13682958E-01  1.00000000E+00
  1.00000000E+00  6.93516317E-04  5.34150243E-03  2.71366714E-02  1.01992385E-01
  2.75508636E-01  4.51086433E-01  2.87565745E-01  7.73354740E-06  2.78072137E-04
 -2.57875654E-03 -8.95087684E-03 -1.06058855E-01 -1.31517686E-01  1.09948660E+00
  1.00000000E+00  1.00000000E+00  5.69792516E-02  3.13207212E-01  7.60376742E-01
  1.00000000E+00  1.00000000E+00  1.00000000E+00  1.00000000E+00  6.93516317E-04
  5.34150243E-03  2.71366714E-02  1.01992385E-01  2.75508636E-01  4.51086433E-01
  2.87565745E-01  7.73354740E-06  2.78072137E-04 -2.57875654E-03 -8.95087684E-03
 -1.06058855E-01 -1.31517686E-01  1.09948660E+00  1.00000000E+00  1.00000000E+00
  5.69792516E-02  3.13207212E-01  7.60376742E-01  1.00000000E+00  1.00000000E+00
  1.00000000E+00  1.00000000E+00  7.11864434E-04  5.48520199E-03  2.79099296E-02
  1.05133208E-01  2.84002490E-01  4.51673946E-01  2.73208126E-01  7.69030046E-06
  3.13484579E-04 -2.96614853E-03 -1.08753543E-02 -1.20753817E-01 -1.06275264E-01
  1.09597548E+00  1.00000000E+00  1.00000000E+00  6.26791663E-02  3.33536566E-01
  7.41239642E-01  1.00000000E+00  1.00000000E+00  1.00000000E+00  1.00000000E+00
  3.34987264E-02  2.34800801E-01  8.13682958E-01  1.00000000E+00  1.00000000E+00
  3.34987264E-02  2.34800801E-01  8.13682958E-01  1.00000000E+00  1.00000000E+00
  3.34987264E-02  2.34800801E-01  8.13682958E-01  1.00000000E+00  1.00000000E+00
  3.34987264E-02  2.34800801E-01  8.13682958E-01  1.00000000E+00  1.00000000E+00
  3.34987264E-02  2.34800801E-01  8.13682958E-01  1.00000000E+00  1.00000000E+00
  3.34987264E-02  2.34800801E-01  8.13682958E-01  1.00000000E+00  1.00000000E+00
  7.01708743E-04  5.40299880E-03  2.74729510E-02  1.03514580E-01  2.79586579E-01
  4.51317241E-01  2.80626875E-01  7.77446797E-06  3.00742072E-04 -2.80016549E-03
 -9.89708505E-03 -1.14331114E-01 -1.18162383E-01  1.09786885E+00  1.00000000E+00
  1.00000000E+00  5.89056768E-02  3.20461107E-01  7.53042062E-01  1.00000000E+00
  1.00000000E+00  1.00000000E+00  1.00000000E+00  3.34987264E-02  2.34800801E-01
  8.13682958E-01  1.00000000E+00  1.00000000E+00  6.93516317E-04  5.34150243E-03
  2.71366714E-02  1.01992385E-01  2.75508636E-01  4.51086433E-01  2.87565745E-01
  7.73354740E-06  2.78072137E-04 -2.57875654E-03 -8.95087684E-03 -1.06058855E-01
 -1.31517686E-01  1.09948660E+00  1.00000000E+00  1.00000000E+00  5.69792516E-02
  3.13207212E-01  7.60376742E-01  1.00000000E+00  1.00000000E+00  1.00000000E+00
  1.00000000E+00  3.34987264E-02  2.34800801E-01  8.13682958E-01  1.00000000E+00
  1.00000000E+00  3.34987264E-02  2.34800801E-01  8.13682958E-01  1.00000000E+00
  1.00000000E+00  3.34987264E-02  2.34800801E-01  8.13682958E-01  1.00000000E+00
  1.00000000E+00
Coordinates of each shell                  R   N=         468
 -4.00690767E+00 -8.66305650E-01  4.46868569E-01 -4.00690767E+00 -8.66305650E-01
  4.46868569E-01 -4.00690767E+00 -8.66305650E-01  4.46868569E-01 -4.00690767E+00
 -8.66305650E-01  4.46868569E-01 -4.00690767E+00 -8.66305650E-01  4.46868569E-01
 -4.00690767E+00 -8.66305650E-01  4.46868569E-01 -4.00690767E+00 -8.66305650E-01
  4.46868569E-01 -4.00690767E+00 -8.66305650E-01  4.46868569E-01 -4.00690767E+00
 -8.66305650E-01  4.46868569E-01 -4.13138360E+00  5.61187466E-01  2.22579205E+00
 -4.13138360E+00  5.61187466E-01  2.22579205E+00 -4.13138360E+00  5.61187466E-01
  2.22579205E+00 -4.13138360E+00  5.61187466E-01  2.22579205E+00 -4.13138360E+00
  5.61187466E-01  2.22579205E+00 -4.13138360E+00  5.61187466E-01  2.22579205E+00
 -4.13138360E+00  5.61187466E-01  2.22579205E+00 -4.13138360E+00  5.61187466E-01
  2.22579205E+00 -4.13138360E+00  5.61187466E-01  2.22579205E+00 -6.34167088E+00
 -1.94405631E+00 -9.65190184E-01 -6.34167088E+00 -1.94405631E+00 -9.65190184E-01
 -6.34167088E+00 -1.94405631E+00 -9.65190184E-01 -6.34167088E+00 -1.94405631E+00
 -9.65190184E-01 -6.34167088E+00 -1.94405631E+00 -9.65190184E-01 -6.34167088E+00
 -1.94405631E+00 -9.65190184E-01 -6.34167088E+00 -1.94405631E+00 -9.65190184E-01
 -6.34167088E+00 -1.94405631E+00 -9.65190184E-01 -6.34167088E+00 -1.94405631E+00
 -9.65190184E-01 -6.25255953E+00 -1.45758099E+00 -2.95781632E+00 -6.25255953E+00
 -1.45758099E+00 -2.95781632E+00 -6.25255953E+00 -1.45758099E+00 -2.95781632E+00
 -6.38739721E+00 -3.98976037E+00 -7.86653105E-01 -6.38739721E+00 -3.98976037E+00
 -7.86653105E-01 -6.38739721E+00 -3.98976037E+00 -7.86653105E-01 -8.04798885E+00
 -1.15427052E+00 -1.45240414E-01 -8.04798885E+00 -1.15427052E+00 -1.45240414E-01
 -8.04798885E+00 -1.15427052E+00 -1.45240414E-01 -1.70869264E+00 -1.66667275E+00
 -5.44811287E-01 -1.70869264E+00 -1.66667275E+00 -5.44811287E-01 -1.70869264E+00
 -1.66667275E+00 -5.44811287E-01 -1.70869264E+00 -1.66667275E+00 -5.44811287E-01
 -1.70869264E+00 -1.66667275E+00 -5.44811287E-01 -1.70869264E+00 -1.66667275E+00
 -5.44811287E-01 -1.70869264E+00 -1.66667275E+00 -5.44811287E-01 -1.70869264E+00
 -1.66667275E+00 -5.44811287E-01 -1.70869264E+00 -1.66667275E+00 -5.44811287E-01
 -1.69618434E+00 -2.97918234E+00 -1.91470417E+00 -1.69618434E+00 -2.97918234E+00
 -1.91470417E+00 -1.69618434E+00 -2.97918234E+00 -1.91470417E+00  6.52114564E-01
 -9.94772573E-01  6.82727441E-01  6.52114564E-01 -9.94772573E-01  6.82727441E-01
  6.52114564E-01 -9.94772573E-01  6.82727441E-01  6.52114564E-01 -9.94772573E-01
  6.82727441E-01  6.52114564E-01 -9.94772573E-01  6.82727441E-01  6.52114564E-01
 -9.94772573E-01  6.82727441E-01  6.52114564E-01 -9.94772573E-01  6.82727441E-01
  6.52114564E-01 -9.94772573E-01  6.82727441E-01  6.52114564E-01 -9.94772573E-01
  6.82727441E-01  6.73898757E-01 -1.63073873E+00  2.64347163E+00  6.73898757E-01
 -1.63073873E+00  2.64347163E+00  6.73898757E-01 -1.63073873E+00  2.64347163E+00
  2.91390150E+00 -2.21543010E+00 -7.46133408E-01  2.91390150E+00 -2.21543010E+00
 -7.46133408E-01  2.91390150E+00 -2.21543010E+00 -7.46133408E-01  2.91390150E+00