VAL_0 FIELD TEST_x+50                                                   
SP        RPBE1PBE                                                    Gen                 
Number of atoms                            I               28
Info1-9                                    I   N=           9
          45          45           0           0           0         111
           1          18        -302
Charge                                     I                0
Multiplicity                               I                1
Number of electrons                        I               94
Number of alpha electrons                  I               47
Number of beta electrons                   I               47
Number of basis functions                  I              356
Number of independent functions            I              356
Number of point charges in /Mol/           I                0
Number of translation vectors              I                0
Atomic numbers                             I   N=          28
           6           8           6           1           1           1
           7           1           6           1           6           6
           1           6           6           8           1           1
           1           1           1           1           7           1
           6           1           1           1
Nuclear charges                            R   N=          28
  6.00000000E+00  8.00000000E+00  6.00000000E+00  1.00000000E+00  1.00000000E+00
  1.00000000E+00  7.00000000E+00  1.00000000E+00  6.00000000E+00  1.00000000E+00
  6.00000000E+00  6.00000000E+00  1.00000000E+00  6.00000000E+00  6.00000000E+00
  8.00000000E+00  1.00000000E+00  1.00000000E+00  1.00000000E+00  1.00000000E+00
  1.00000000E+00  1.00000000E+00  7.00000000E+00  1.00000000E+00  6.00000000E+00
  1.00000000E+00  1.00000000E+00  1.00000000E+00
Current cartesian coordinates              R   N=          84
 -3.79448744E+00 -1.37465547E+00  5.14329926E-01 -4.06219549E+00  3.92824187E-02
  2.28856760E+00 -6.00184284E+00 -2.74647584E+00 -8.46018549E-01 -6.00578501E+00
 -2.27859669E+00 -2.84503318E+00 -5.79311348E+00 -4.78009375E+00 -6.45542034E-01
 -7.77886261E+00 -2.16214201E+00 -4.31196838E-03 -1.43116452E+00 -1.88868765E+00
 -5.13119781E-01 -1.27044789E+00 -3.19022074E+00 -1.88387273E+00  8.36585153E-01
 -8.87226354E-01  6.60001198E-01  9.78836561E-01 -1.48098950E+00  2.62898453E+00
  3.21149046E+00 -1.83616600E+00 -7.96869865E-01  7.64022914E-01  2.07306112E+00
  7.19140353E-01  2.94784514E+00 -1.39663164E+00 -2.78098964E+00  5.62943605E+00
 -4.91253264E-01  1.49777983E-01  3.49534990E+00 -4.73364388E+00 -4.79592751E-01
  1.60089234E+00  3.28952633E+00  2.46092536E+00  5.82544743E+00 -7.32074933E-01
  2.17503456E+00  7.27521637E+00 -1.29467306E+00 -7.66617642E-01  5.56921294E+00
  1.51551176E+00 -2.53831126E-01  1.83876162E+00 -5.74214560E+00 -1.13137305E+00
  5.11462770E+00 -5.39904590E+00 -1.54360244E+00  3.78979120E+00 -5.18989134E+00
  1.49566537E+00 -2.10801363E-01  3.13314636E+00 -1.46523474E+00 -1.04492370E+00
  1.97235757E+00 -2.71531984E+00 -5.45214988E-01  5.85089102E+00 -1.69959299E+00
  2.24652918E-01  6.54532401E+00 -3.48244511E+00 -2.53166073E+00  6.40112209E+00
 -1.57718966E+00  4.72552629E-01  6.74332079E+00 -1.44069923E-01
Force Field                                I                0
Int Atom Types                             I   N=          28
           0           0           0           0           0           0
           0           0           0           0           0           0
           0           0           0           0           0           0
           0           0           0           0           0           0
           0           0           0           0
MM charges                                 R   N=          28
  0.00000000E+00  0.00000000E+00  0.00000000E+00  0.00000000E+00  0.00000000E+00
  0.00000000E+00  0.00000000E+00  0.00000000E+00  0.00000000E+00  0.00000000E+00
  0.00000000E+00  0.00000000E+00  0.00000000E+00  0.00000000E+00  0.00000000E+00
  0.00000000E+00  0.00000000E+00  0.00000000E+00  0.00000000E+00  0.00000000E+00
  0.00000000E+00  0.00000000E+00  0.00000000E+00  0.00000000E+00  0.00000000E+00
  0.00000000E+00  0.00000000E+00  0.00000000E+00
Integer atomic weights                     I   N=          28
          12          16          12           1           1           1
          14           1          12           1          12          12
           1          12          12          16           1           1
           1           1           1           1          14           1
          12           1           1           1
Real atomic weights                        R   N=          28
  1.20000000E+01  1.59949146E+01  1.20000000E+01  1.00782504E+00  1.00782504E+00
  1.00782504E+00  1.40030740E+01  1.00782504E+00  1.20000000E+01  1.00782504E+00
  1.20000000E+01  1.20000000E+01  1.00782504E+00  1.20000000E+01  1.20000000E+01
  1.59949146E+01  1.00782504E+00  1.00782504E+00  1.00782504E+00  1.00782504E+00
  1.00782504E+00  1.00782504E+00  1.40030740E+01  1.00782504E+00  1.20000000E+01
  1.00782504E+00  1.00782504E+00  1.00782504E+00
Atom fragment info                         I   N=          28
           0           0           0           0           0           0
           0           0           0           0           0           0
           0           0           0           0           0           0
           0           0           0           0           0           0
           0           0           0           0
Atom residue num                           I   N=          28
           0           0           0           0           0           0
           0           0           0           0           0           0
           0           0           0           0           0           0
           0           0           0           0           0           0
           0           0           0           0
Nuclear spins                              I   N=          28
           0           0           0           1           1           1
           2           1           0           1           0           0
           1           0           0           0           1           1
           1           1           1           1           2           1
           0           1           1           1
Nuclear ZEff                               R   N=          28
 -3.60000000E+00 -5.60000000E+00 -3.60000000E+00 -1.00000000E+00 -1.00000000E+00
 -1.00000000E+00 -4.55000000E+00 -1.00000000E+00 -3.60000000E+00 -1.00000000E+00
 -3.60000000E+00 -3.60000000E+00 -1.00000000E+00 -3.60000000E+00 -3.60000000E+00
 -5.60000000E+00 -1.00000000E+00 -1.00000000E+00 -1.00000000E+00 -1.00000000E+00
 -1.00000000E+00 -1.00000000E+00 -4.55000000E+00 -1.00000000E+00 -3.60000000E+00
 -1.00000000E+00 -1.00000000E+00 -1.00000000E+00
Nuclear ZNuc                               R   N=          28
  6.00000000E+00  8.00000000E+00  6.00000000E+00  1.00000000E+00  1.00000000E+00
  1.00000000E+00  7.00000000E+00  1.00000000E+00  6.00000000E+00  1.00000000E+00
  6.00000000E+00  6.00000000E+00  1.00000000E+00  6.00000000E+00  6.00000000E+00
  8.00000000E+00  1.00000000E+00  1.00000000E+00  1.00000000E+00  1.00000000E+00
  1.00000000E+00  1.00000000E+00  7.00000000E+00  1.00000000E+00  6.00000000E+00
  1.00000000E+00  1.00000000E+00  1.00000000E+00
Nuclear QMom                               R   N=          28
  0.00000000E+00  0.00000000E+00  0.00000000E+00  0.00000000E+00  0.00000000E+00
  0.00000000E+00  2.04400000E+00  0.00000000E+00  0.00000000E+00  0.00000000E+00
  0.00000000E+00  0.00000000E+00  0.00000000E+00  0.00000000E+00  0.00000000E+00
  0.00000000E+00  0.00000000E+00  0.00000000E+00  0.00000000E+00  0.00000000E+00
  0.00000000E+00  0.00000000E+00  2.04400000E+00  0.00000000E+00  0.00000000E+00
  0.00000000E+00  0.00000000E+00  0.00000000E+00
Nuclear GFac                               R   N=          28
  0.00000000E+00  0.00000000E+00  0.00000000E+00  2.79284600E+00  2.79284600E+00
  2.79284600E+00  4.03761000E-01  2.79284600E+00  0.00000000E+00  2.79284600E+00
  0.00000000E+00  0.00000000E+00  2.79284600E+00  0.00000000E+00  0.00000000E+00
  0.00000000E+00  2.79284600E+00  2.79284600E+00  2.79284600E+00  2.79284600E+00
  2.79284600E+00  2.79284600E+00  4.03761000E-01  2.79284600E+00  0.00000000E+00
  2.79284600E+00  2.79284600E+00  2.79284600E+00
MicOpt                                     I   N=          28
          -1          -1          -1          -1          -1          -1
          -1          -1          -1          -1          -1          -1
          -1          -1          -1          -1          -1          -1
          -1          -1          -1          -1          -1          -1
          -1          -1          -1          -1
Number of contracted shells                I              156
Number of primitive shells                 I              356
Pure/Cartesian d shells                    I                0
Pure/Cartesian f shells                    I                0
Highest angular momentum                   I                2
Largest degree of contraction              I                7
Shell types                                I   N=         156
           0           0           0           0           1           1
           1          -2          -2           0           0           0
           0           1           1           1          -2          -2
           0           0           0           0           1           1
           1          -2          -2           0           0           1
           0           0           1           0           0           1
           0           0           0           0           1           1
           1          -2          -2           0           0           1
           0           0           0           0           1           1
           1          -2          -2           0           0           1
           0           0           0           0           1           1
           1          -2          -2           0           0           0
           0           1           1           1          -2          -2
           0           0           1           0           0           0
           0           1           1           1          -2          -2
           0           0           0           0           1           1
           1          -2          -2           0           0           0
           0           1           1           1          -2          -2
           0           0           1           0           0           1
           0           0           1           0           0           1
           0           0           1           0           0           1
           0           0           0           0           1           1
           1          -2          -2           0           0           1
           0           0           0           0           1           1
           1          -2          -2           0           0           1
           0           0           1           0           0           1
Number of primitives per shell             I   N=         156
           7           7           1           1           3           1
           1           1           1           7           7           1
           1           3           1           1           1           1
           7           7           1           1           3           1
           1           1           1           3           1           1
           3           1           1           3           1           1
           7           7           1           1           3           1
           1           1           1           3           1           1
           7           7           1           1           3           1
           1           1           1           3           1           1
           7           7           1           1           3           1
           1           1           1           7           7           1
           1           3           1           1           1           1
           3           1           1           7           7           1
           1           3           1           1           1           1
           7           7           1           1           3           1
           1           1           1           7           7           1
           1           3           1           1           1           1
           3           1           1           3           1           1
           3           1           1           3           1           1
           3           1           1           3           1           1
           7           7           1           1           3           1
           1           1           1           3           1           1
           7           7           1           1           3           1
           1           1           1           3           1           1
           3           1           1           3           1           1
Shell to atom map                          I   N=         156
           1           1           1           1           1           1
           1           1           1           2           2           2
           2           2           2           2           2           2
           3           3           3           3           3           3
           3           3           3           4           4           4
           5           5           5           6           6           6
           7           7           7           7           7           7
           7           7           7           8           8           8
           9           9           9           9           9           9
           9           9           9          10          10          10
          11          11          11          11          11          11
          11          11          11          12          12          12
          12          12          12          12          12          12
          13          13          13          14          14          14
          14          14          14          14          14          14
          15          15          15          15          15          15
          15          15          15          16          16          16
          16          16          16          16          16          16
          17          17          17          18          18          18
          19          19          19          20          20          20
          21          21          21          22          22          22
          23          23          23          23          23          23
          23          23          23          24          24          24
          25          25          25          25          25          25
          25          25          25          26          26          26
          27          27          27          28          28          28
Primitive exponents                        R   N=         356
  6.66500000E+03  1.00000000E+03  2.28000000E+02  6.47100000E+01  2.10600000E+01
  7.49500000E+00  2.79700000E+00  6.66500000E+03  2.28000000E+02  6.47100000E+01
  2.10600000E+01  7.49500000E+00  2.79700000E+00  5.21500000E-01  1.59600000E-01
  4.69000000E-02  9.43900000E+00  2.00200000E+00  5.45600000E-01  1.51700000E-01
  4.04100000E-02  5.50000000E-01  1.51000000E-01  1.17200000E+04  1.75900000E+03
  4.00800000E+02  1.13700000E+02  3.70300000E+01  1.32700000E+01  5.02500000E+00
  1.17200000E+04  4.00800000E+02  1.13700000E+02  3.70300000E+01  1.32700000E+01
  5.02500000E+00  1.01300000E+00  3.02300000E-01  7.89600000E-02  1.77000000E+01
  3.85400000E+00  1.04600000E+00  2.75300000E-01  6.85600000E-02  1.18500000E+00
  3.32000000E-01  6.66500000E+03  1.00000000E+03  2.28000000E+02  6.47100000E+01
  2.10600000E+01  7.49500000E+00  2.79700000E+00  6.66500000E+03  2.28000000E+02
  6.47100000E+01  2.10600000E+01  7.49500000E+00  2.79700000E+00  5.21500000E-01
  1.59600000E-01  4.69000000E-02  9.43900000E+00  2.00200000E+00  5.45600000E-01
  1.51700000E-01  4.04100000E-02  5.50000000E-01  1.51000000E-01  1.30100000E+01
  1.96200000E+00  4.44600000E-01  1.22000000E-01  7.27000000E-01  1.30100000E+01
  1.96200000E+00  4.44600000E-01  1.22000000E-01  7.27000000E-01  1.30100000E+01
  1.96200000E+00  4.44600000E-01  1.22000000E-01  7.27000000E-01  9.04600000E+03
  1.35700000E+03  3.09300000E+02  8.77300000E+01  2.85600000E+01  1.02100000E+01
  3.83800000E+00  9.04600000E+03  3.09300000E+02  8.77300000E+01  2.85600000E+01
  1.02100000E+01  3.83800000E+00  7.46600000E-01  2.24800000E-01  6.12400000E-02
  1.35500000E+01  2.91700000E+00  7.97300000E-01  2.18500000E-01  5.61100000E-02
  8.17000000E-01  2.30000000E-01  1.30100000E+01  1.96200000E+00  4.44600000E-01
  1.22000000E-01  7.27000000E-01  6.66500000E+03  1.00000000E+03  2.28000000E+02
  6.47100000E+01  2.10600000E+01  7.49500000E+00  2.79700000E+00  6.66500000E+03
  2.28000000E+02  6.47100000E+01  2.10600000E+01  7.49500000E+00  2.79700000E+00
  5.21500000E-01  1.59600000E-01  4.69000000E-02  9.43900000E+00  2.00200000E+00
  5.45600000E-01  1.51700000E-01  4.04100000E-02  5.50000000E-01  1.51000000E-01
  1.30100000E+01  1.96200000E+00  4.44600000E-01  1.22000000E-01  7.27000000E-01
  6.66500000E+03  1.00000000E+03  2.28000000E+02  6.47100000E+01  2.10600000E+01
  7.49500000E+00  2.79700000E+00  6.66500000E+03  2.28000000E+02  6.47100000E+01
  2.10600000E+01  7.49500000E+00  2.79700000E+00  5.21500000E-01  1.59600000E-01
  4.69000000E-02  9.43900000E+00  2.00200000E+00  5.45600000E-01  1.51700000E-01
  4.04100000E-02  5.50000000E-01  1.51000000E-01  6.66500000E+03  1.00000000E+03
  2.28000000E+02  6.47100000E+01  2.10600000E+01  7.49500000E+00  2.79700000E+00
  6.66500000E+03  2.28000000E+02  6.47100000E+01  2.10600000E+01  7.49500000E+00
  2.79700000E+00  5.21500000E-01  1.59600000E-01  4.69000000E-02  9.43900000E+00
  2.00200000E+00  5.45600000E-01  1.51700000E-01  4.04100000E-02  5.50000000E-01
  1.51000000E-01  1.30100000E+01  1.96200000E+00  4.44600000E-01  1.22000000E-01
  7.27000000E-01  6.66500000E+03  1.00000000E+03  2.28000000E+02  6.47100000E+01
  2.10600000E+01  7.49500000E+00  2.79700000E+00  6.66500000E+03  2.28000000E+02
  6.47100000E+01  2.10600000E+01  7.49500000E+00  2.79700000E+00  5.21500000E-01
  1.59600000E-01  4.69000000E-02  9.43900000E+00  2.00200000E+00  5.45600000E-01
  1.51700000E-01  4.04100000E-02  5.50000000E-01  1.51000000E-01  6.66500000E+03
  1.00000000E+03  2.28000000E+02  6.47100000E+01  2.10600000E+01  7.49500000E+00
  2.79700000E+00  6.66500000E+03  2.28000000E+02  6.47100000E+01  2.10600000E+01
  7.49500000E+00  2.79700000E+00  5.21500000E-01  1.59600000E-01  4.69000000E-02
  9.43900000E+00  2.00200000E+00  5.45600000E-01  1.51700000E-01  4.04100000E-02
  5.50000000E-01  1.51000000E-01  1.17200000E+04  1.75900000E+03  4.00800000E+02
  1.13700000E+02  3.70300000E+01  1.32700000E+01  5.02500000E+00  1.17200000E+04
  4.00800000E+02  1.13700000E+02  3.70300000E+01  1.32700000E+01  5.02500000E+00
  1.01300000E+00  3.02300000E-01  7.89600000E-02  1.77000000E+01  3.85400000E+00
  1.04600000E+00  2.75300000E-01  6.85600000E-02  1.18500000E+00  3.32000000E-01
  1.30100000E+01  1.96200000E+00  4.44600000E-01  1.22000000E-01  7.27000000E-01
  1.30100000E+01  1.96200000E+00  4.44600000E-01  1.22000000E-01  7.27000000E-01
  1.30100000E+01  1.96200000E+00  4.44600000E-01  1.22000000E-01  7.27000000E-01
  1.30100000E+01  1.96200000E+00  4.44600000E-01  1.22000000E-01  7.27000000E-01
  1.30100000E+01  1.96200000E+00  4.44600000E-01  1.22000000E-01  7.27000000E-01
  1.30100000E+01  1.96200000E+00  4.44600000E-01  1.22000000E-01  7.27000000E-01
  9.04600000E+03  1.35700000E+03  3.09300000E+02  8.77300000E+01  2.85600000E+01
  1.02100000E+01  3.83800000E+00  9.04600000E+03  3.09300000E+02  8.77300000E+01
  2.85600000E+01  1.02100000E+01  3.83800000E+00  7.46600000E-01  2.24800000E-01
  6.12400000E-02  1.35500000E+01  2.91700000E+00  7.97300000E-01  2.18500000E-01
  5.61100000E-02  8.17000000E-01  2.30000000E-01  1.30100000E+01  1.96200000E+00
  4.44600000E-01  1.22000000E-01  7.27000000E-01  6.66500000E+03  1.00000000E+03
  2.28000000E+02  6.47100000E+01  2.10600000E+01  7.49500000E+00  2.79700000E+00
  6.66500000E+03  2.28000000E+02  6.47100000E+01  2.10600000E+01  7.49500000E+00
  2.79700000E+00  5.21500000E-01  1.59600000E-01  4.69000000E-02  9.43900000E+00
  2.00200000E+00  5.45600000E-01  1.51700000E-01  4.04100000E-02  5.50000000E-01
  1.51000000E-01  1.30100000E+01  1.96200000E+00  4.44600000E-01  1.22000000E-01
  7.27000000E-01  1.30100000E+01  1.96200000E+00  4.44600000E-01  1.22000000E-01
  7.27000000E-01  1.30100000E+01  1.96200000E+00  4.44600000E-01  1.22000000E-01
  7.27000000E-01
Contraction coefficients                   R   N=         356
  6.93516317E-04  5.34150243E-03  2.71366714E-02  1.01992385E-01  2.75508636E-01
  4.51086433E-01  2.87565745E-01  7.73354740E-06  2.78072137E-04 -2.57875654E-03
 -8.95087684E-03 -1.06058855E-01 -1.31517686E-01  1.09948660E+00  1.00000000E+00
  1.00000000E+00  5.69792516E-02  3.13207212E-01  7.60376742E-01  1.00000000E+00
  1.00000000E+00  1.00000000E+00  1.00000000E+00  7.11864434E-04  5.48520199E-03
  2.79099296E-02  1.05133208E-01  2.84002490E-01  4.51673946E-01  2.73208126E-01
  7.69030046E-06  3.13484579E-04 -2.96614853E-03 -1.08753543E-02 -1.20753817E-01
 -1.06275264E-01  1.09597548E+00  1.00000000E+00  1.00000000E+00  6.26791663E-02
  3.33536566E-01  7.41239642E-01  1.00000000E+00  1.00000000E+00  1.00000000E+00
  1.00000000E+00  6.93516317E-04  5.34150243E-03  2.71366714E-02  1.01992385E-01
  2.75508636E-01  4.51086433E-01  2.87565745E-01  7.73354740E-06  2.78072137E-04
 -2.57875654E-03 -8.95087684E-03 -1.06058855E-01 -1.31517686E-01  1.09948660E+00
  1.00000000E+00  1.00000000E+00  5.69792516E-02  3.13207212E-01  7.60376742E-01
  1.00000000E+00  1.00000000E+00  1.00000000E+00  1.00000000E+00  3.34987264E-02
  2.34800801E-01  8.13682958E-01  1.00000000E+00  1.00000000E+00  3.34987264E-02
  2.34800801E-01  8.13682958E-01  1.00000000E+00  1.00000000E+00  3.34987264E-02
  2.34800801E-01  8.13682958E-01  1.00000000E+00  1.00000000E+00  7.01708743E-04
  5.40299880E-03  2.74729510E-02  1.03514580E-01  2.79586579E-01  4.51317241E-01
  2.80626875E-01  7.77446797E-06  3.00742072E-04 -2.80016549E-03 -9.89708505E-03
 -1.14331114E-01 -1.18162383E-01  1.09786885E+00  1.00000000E+00  1.00000000E+00
  5.89056768E-02  3.20461107E-01  7.53042062E-01  1.00000000E+00  1.00000000E+00
  1.00000000E+00  1.00000000E+00  3.34987264E-02  2.34800801E-01  8.13682958E-01
  1.00000000E+00  1.00000000E+00  6.93516317E-04  5.34150243E-03  2.71366714E-02
  1.01992385E-01  2.75508636E-01  4.51086433E-01  2.87565745E-01  7.73354740E-06
  2.78072137E-04 -2.57875654E-03 -8.95087684E-03 -1.06058855E-01 -1.31517686E-01
  1.09948660E+00  1.00000000E+00  1.00000000E+00  5.69792516E-02  3.13207212E-01
  7.60376742E-01  1.00000000E+00  1.00000000E+00  1.00000000E+00  1.00000000E+00
  3.34987264E-02  2.34800801E-01  8.13682958E-01  1.00000000E+00  1.00000000E+00
  6.93516317E-04  5.34150243E-03  2.71366714E-02  1.01992385E-01  2.75508636E-01
  4.51086433E-01  2.87565745E-01  7.73354740E-06  2.78072137E-04 -2.57875654E-03
 -8.95087684E-03 -1.06058855E-01 -1.31517686E-01  1.09948660E+00  1.00000000E+00
  1.00000000E+00  5.69792516E-02  3.13207212E-01  7.60376742E-01  1.00000000E+00
  1.00000000E+00  1.00000000E+00  1.00000000E+00  6.93516317E-04  5.34150243E-03
  2.71366714E-02  1.01992385E-01  2.75508636E-01  4.51086433E-01  2.87565745E-01
  7.73354740E-06  2.78072137E-04 -2.57875654E-03 -8.95087684E-03 -1.06058855E-01
 -1.31517686E-01  1.09948660E+00  1.00000000E+00  1.00000000E+00  5.69792516E-02
  3.13207212E-01  7.60376742E-01  1.00000000E+00  1.00000000E+00  1.00000000E+00
  1.00000000E+00  3.34987264E-02  2.34800801E-01  8.13682958E-01  1.00000000E+00
  1.00000000E+00  6.93516317E-04  5.34150243E-03  2.71366714E-02  1.01992385E-01
  2.75508636E-01  4.51086433E-01  2.87565745E-01  7.73354740E-06  2.78072137E-04
 -2.57875654E-03 -8.95087684E-03 -1.06058855E-01 -1.31517686E-01  1.09948660E+00
  1.00000000E+00  1.00000000E+00  5.69792516E-02  3.13207212E-01  7.60376742E-01
  1.00000000E+00  1.00000000E+00  1.00000000E+00  1.00000000E+00  6.93516317E-04
  5.34150243E-03  2.71366714E-02  1.01992385E-01  2.75508636E-01  4.51086433E-01
  2.87565745E-01  7.73354740E-06  2.78072137E-04 -2.57875654E-03 -8.95087684E-03
 -1.06058855E-01 -1.31517686E-01  1.09948660E+00  1.00000000E+00  1.00000000E+00
  5.69792516E-02  3.13207212E-01  7.60376742E-01  1.00000000E+00  1.00000000E+00
  1.00000000E+00  1.00000000E+00  7.11864434E-04  5.48520199E-03  2.79099296E-02
  1.05133208E-01  2.84002490E-01  4.51673946E-01  2.73208126E-01  7.69030046E-06
  3.13484579E-04 -2.96614853E-03 -1.08753543E-02 -1.20753817E-01 -1.06275264E-01
  1.09597548E+00  1.00000000E+00  1.00000000E+00  6.26791663E-02  3.33536566E-01
  7.41239642E-01  1.00000000E+00  1.00000000E+00  1.00000000E+00  1.00000000E+00
  3.34987264E-02  2.34800801E-01  8.13682958E-01  1.00000000E+00  1.00000000E+00
  3.34987264E-02  2.34800801E-01  8.13682958E-01  1.00000000E+00  1.00000000E+00
  3.34987264E-02  2.34800801E-01  8.13682958E-01  1.00000000E+00  1.00000000E+00
  3.34987264E-02  2.34800801E-01  8.13682958E-01  1.00000000E+00  1.00000000E+00
  3.34987264E-02  2.34800801E-01  8.13682958E-01  1.00000000E+00  1.00000000E+00
  3.34987264E-02  2.34800801E-01  8.13682958E-01  1.00000000E+00  1.00000000E+00
  7.01708743E-04  5.40299880E-03  2.74729510E-02  1.03514580E-01  2.79586579E-01
  4.51317241E-01  2.80626875E-01  7.77446797E-06  3.00742072E-04 -2.80016549E-03
 -9.89708505E-03 -1.14331114E-01 -1.18162383E-01  1.09786885E+00  1.00000000E+00
  1.00000000E+00  5.89056768E-02  3.20461107E-01  7.53042062E-01  1.00000000E+00
  1.00000000E+00  1.00000000E+00  1.00000000E+00  3.34987264E-02  2.34800801E-01
  8.13682958E-01  1.00000000E+00  1.00000000E+00  6.93516317E-04  5.34150243E-03
  2.71366714E-02  1.01992385E-01  2.75508636E-01  4.51086433E-01  2.87565745E-01
  7.73354740E-06  2.78072137E-04 -2.57875654E-03 -8.95087684E-03 -1.06058855E-01
 -1.31517686E-01  1.09948660E+00  1.00000000E+00  1.00000000E+00  5.69792516E-02
  3.13207212E-01  7.60376742E-01  1.00000000E+00  1.00000000E+00  1.00000000E+00
  1.00000000E+00  3.34987264E-02  2.34800801E-01  8.13682958E-01  1.00000000E+00
  1.00000000E+00  3.34987264E-02  2.34800801E-01  8.13682958E-01  1.00000000E+00
  1.00000000E+00  3.34987264E-02  2.34800801E-01  8.13682958E-01  1.00000000E+00
  1.00000000E+00
Coordinates of each shell                  R   N=         468
 -3.79448744E+00 -1.37465547E+00  5.14329926E-01 -3.79448744E+00 -1.37465547E+00
  5.14329926E-01 -3.79448744E+00 -1.37465547E+00  5.14329926E-01 -3.79448744E+00
 -1.37465547E+00  5.14329926E-01 -3.79448744E+00 -1.37465547E+00  5.14329926E-01
 -3.79448744E+00 -1.37465547E+00  5.14329926E-01 -3.79448744E+00 -1.37465547E+00
  5.14329926E-01 -3.79448744E+00 -1.37465547E+00  5.14329926E-01 -3.79448744E+00
 -1.37465547E+00  5.14329926E-01 -4.06219549E+00  3.92824187E-02  2.28856760E+00
 -4.06219549E+00  3.92824187E-02  2.28856760E+00 -4.06219549E+00  3.92824187E-02
  2.28856760E+00 -4.06219549E+00  3.92824187E-02  2.28856760E+00 -4.06219549E+00
  3.92824187E-02  2.28856760E+00 -4.06219549E+00  3.92824187E-02  2.28856760E+00
 -4.06219549E+00  3.92824187E-02  2.28856760E+00 -4.06219549E+00  3.92824187E-02
  2.28856760E+00 -4.06219549E+00  3.92824187E-02  2.28856760E+00 -6.00184284E+00
 -2.74647584E+00 -8.46018549E-01 -6.00184284E+00 -2.74647584E+00 -8.46018549E-01
 -6.00184284E+00 -2.74647584E+00 -8.46018549E-01 -6.00184284E+00 -2.74647584E+00
 -8.46018549E-01 -6.00184284E+00 -2.74647584E+00 -8.46018549E-01 -6.00184284E+00
 -2.74647584E+00 -8.46018549E-01 -6.00184284E+00 -2.74647584E+00 -8.46018549E-01
 -6.00184284E+00 -2.74647584E+00 -8.46018549E-01 -6.00184284E+00 -2.74647584E+00
 -8.46018549E-01 -6.00578501E+00 -2.27859669E+00 -2.84503318E+00 -6.00578501E+00
 -2.27859669E+00 -2.84503318E+00 -6.00578501E+00 -2.27859669E+00 -2.84503318E+00
 -5.79311348E+00 -4.78009375E+00 -6.45542034E-01 -5.79311348E+00 -4.78009375E+00
 -6.45542034E-01 -5.79311348E+00 -4.78009375E+00 -6.45542034E-01 -7.77886261E+00
 -2.16214201E+00 -4.31196838E-03 -7.77886261E+00 -2.16214201E+00 -4.31196838E-03
 -7.77886261E+00 -2.16214201E+00 -4.31196838E-03 -1.43116452E+00 -1.88868765E+00
 -5.13119781E-01 -1.43116452E+00 -1.88868765E+00 -5.13119781E-01 -1.43116452E+00
 -1.88868765E+00 -5.13119781E-01 -1.43116452E+00 -1.88868765E+00 -5.13119781E-01
 -1.43116452E+00 -1.88868765E+00 -5.13119781E-01 -1.43116452E+00 -1.88868765E+00
 -5.13119781E-01 -1.43116452E+00 -1.88868765E+00 -5.13119781E-01 -1.43116452E+00
 -1.88868765E+00 -5.13119781E-01 -1.43116452E+00 -1.88868765E+00 -5.13119781E-01
 -1.27044789E+00 -3.19022074E+00 -1.88387273E+00 -1.27044789E+00 -3.19022074E+00
 -1.88387273E+00 -1.27044789E+00 -3.19022074E+00 -1.88387273E+00  8.36585153E-01
 -8.87226354E-01  6.60001198E-01  8.36585153E-01 -8.87226354E-01  6.60001198E-01
  8.36585153E-01 -8.87226354E-01  6.60001198E-01  8.36585153E-01 -8.87226354E-01
  6.60001198E-01  8.36585153E-01 -8.87226354E-01  6.60001198E-01  8.36585153E-01
 -8.87226354E-01  6.60001198E-01  8.36585153E-01 -8.87226354E-01  6.60001198E-01
  8.36585153E-01 -8.87226354E-01  6.60001198E-01  8.36585153E-01 -8.87226354E-01
  6.60001198E-01  9.78836561E-01 -1.48098950E+00  2.62898453E+00  9.78836561E-01
 -1.48098950E+00  2.62898453E+00  9.78836561E-01 -1.48098950E+00  2.62898453E+00
  3.21149046E+00 -1.83616600E+00 -7.96869865E-01  3.21149046E+00 -1.83616600E+00
 -7.96869865E-01  3.21149046E+00 -1.83616600E+00 -7.96869865E-01  3.21149046E+00